# epsilon and Z* of atoms 1
   5.82267868   -0.00000000   -0.00000000   -0.00000000    5.82267868   -0.00000000   -0.00000000   -0.00000000    5.82267868 
  -0.00346405    0.00000000    0.00000000    0.00000000   -0.00346405    0.00000000   -0.00000000   -0.00000000   -0.00346405 