   2 1458
1 1
    45.095002004082815    -0.000000000000007     0.000000000000007
    -0.000000000000007    45.095002004082822    -0.000000000000007
     0.000000000000007    -0.000000000000007    45.095002004082822
1 2
     1.365628262692157    -0.749720648253804    -0.749720648253800
     0.749720648253804    -1.540743883179809    -1.599897372924814
     0.749720648253800    -1.599897372924817    -1.540743883179809
1 3
     0.140442381654336    -0.069185350711068    -0.069185350711072
     0.069185350711072    -0.032328762537314    -0.050144694194215
     0.069185350711068    -0.050144694194215    -0.032328762537314
1 4
     0.024383411382668    -0.010009082030292    -0.010009082030298
     0.010009082030295    -0.003758656520891    -0.006610680445712
     0.010009082030295    -0.006610680445711    -0.003758656520890
1 5
     0.005510271010605    -0.001393079131809    -0.001393079131810
     0.001393079131810    -0.000864464634313    -0.001622047943504
     0.001393079131809    -0.001622047943504    -0.000864464634313
1 6
     0.005510271010605     0.001393079131810     0.001393079131810
    -0.001393079131809    -0.000864464634313    -0.001622047943504
    -0.001393079131810    -0.001622047943504    -0.000864464634313
1 7
     0.024383411382668     0.010009082030298     0.010009082030292
    -0.010009082030295    -0.003758656520890    -0.006610680445711
    -0.010009082030295    -0.006610680445711    -0.003758656520891
1 8
     0.140442381654336     0.069185350711072     0.069185350711068
    -0.069185350711068    -0.032328762537314    -0.050144694194215
    -0.069185350711072    -0.050144694194215    -0.032328762537315
1 9
     1.365628262692157     0.749720648253801     0.749720648253804
    -0.749720648253800    -1.540743883179809    -1.599897372924815
    -0.749720648253804    -1.599897372924815    -1.540743883179809
1 10
    -1.540743883179809     0.749720648253804    -1.599897372924821
    -0.749720648253807     1.365628262692157    -0.749720648253807
    -1.599897372924824     0.749720648253803    -1.540743883179808
1 11
    -0.038954433425195     0.028201752156185     0.015866542013553
     0.028201752156185    -0.038954433425195     0.015866542013558
    -0.023339860344702    -0.023339860344700     0.029375499044487
1 12
    -0.004893649311787     0.009046922234998     0.000108708344340
     0.002797002504027     0.001918982622849    -0.002515552513317
    -0.007614458100574     0.004142132709038     0.002733320110525
1 13
     0.000053733453240     0.001615726194953    -0.000079029921161
     0.000692486478115     0.000434402466878    -0.000615140613081
    -0.001342956144582     0.000675922525881     0.000559722187280
1 14
     0.000475511825982     0.000309541434309    -0.000309541434309
     0.000384571907401     0.000152906784711    -0.000139459429896
    -0.000384571907403    -0.000139459429895     0.000152906784710
1 15
     0.000053733453239     0.000079029921161    -0.001615726194953
     0.001342956144583     0.000559722187279     0.000675922525880
    -0.000692486478114    -0.000615140613081     0.000434402466876
1 16
    -0.004893649311787    -0.000108708344340    -0.009046922234998
     0.007614458100574     0.002733320110526     0.004142132709037
    -0.002797002504027    -0.002515552513317     0.001918982622850
1 17
    -0.038954433425195    -0.015866542013553    -0.028201752156185
     0.023339860344702     0.029375499044487    -0.023339860344701
    -0.028201752156185     0.015866542013557    -0.038954433425195
1 18
    -1.540743883179801     1.599897372924820    -0.749720648253803
     1.599897372924821    -1.540743883179800     0.749720648253803
     0.749720648253807    -0.749720648253806     1.365628262692169
1 19
    -0.032328762537315     0.069185350711072    -0.050144694194216
    -0.069185350711069     0.140442381654336    -0.069185350711070
    -0.050144694194217     0.069185350711071    -0.032328762537315
1 20
     0.001918982622849     0.002797002504028    -0.002515552513315
     0.009046922235005    -0.004893649311788     0.000108708344339
     0.004142132709036    -0.007614458100575     0.002733320110525
1 21
     0.000058158251172     0.001524314718355    -0.001117672627151
     0.001524314718355     0.000058158251173    -0.001117672627151
    -0.000327439485552    -0.000327439485551    -0.000272668269859
1 22
     0.000162518945025     0.000471630233063    -0.000325851837692
     0.000432023132011     0.000012594356063    -0.000343712363397
    -0.000249674897973    -0.000163787210552    -0.000047187453229
1 23
     0.000162518945026     0.000325851837692    -0.000471630233062
     0.000249674897973    -0.000047187453228    -0.000163787210552
    -0.000432023132011    -0.000343712363397     0.000012594356064
1 24
     0.000058158251174     0.001117672627151    -0.001524314718355
     0.000327439485552    -0.000272668269857    -0.000327439485551
    -0.001524314718355    -0.001117672627150     0.000058158251175
1 25
     0.001918982622847     0.002515552513315    -0.002797002504027
    -0.004142132709036     0.002733320110522    -0.007614458100576
    -0.009046922235005     0.000108708344339    -0.004893649311791
1 26
    -0.032328762537300     0.050144694194217    -0.069185350711072
     0.050144694194217    -0.032328762537300     0.069185350711072
     0.069185350711070    -0.069185350711070     0.140442381654352
1 27
     0.029375499044487    -0.015866542013550     0.015866542013549
     0.023339860344695    -0.038954433425195    -0.028201752156184
    -0.023339860344696    -0.028201752156184    -0.038954433425195
1 28
    -0.003758656520891     0.010009082030295    -0.006610680445707
    -0.010009082030292     0.024383411382667    -0.010009082030292
    -0.006610680445707     0.010009082030295    -0.003758656520891
1 29
     0.000434402466878     0.000692486478114    -0.000615140613078
     0.001615726194954     0.000053733453240    -0.000079029921161
     0.000675922525882    -0.001342956144581     0.000559722187281
1 30
     0.000012594356062     0.000432023132010    -0.000343712363399
     0.000471630233057     0.000162518945025    -0.000325851837694
    -0.000163787210557    -0.000249674897981    -0.000047187453229
1 31
     0.000019137125969     0.000233524748304    -0.000233524748303
     0.000233524748304     0.000019137125969    -0.000233524748301
    -0.000233524748304    -0.000233524748300     0.000019137125969
1 32
     0.000012594356064     0.000343712363399    -0.000432023132010
     0.000163787210557    -0.000047187453228    -0.000249674897981
    -0.000471630233056    -0.000325851837694     0.000162518945027
1 33
     0.000434402466876     0.000615140613078    -0.000692486478114
    -0.000675922525881     0.000559722187280    -0.001342956144581
    -0.001615726194955    -0.000079029921161     0.000053733453238
1 34
    -0.003758656520889     0.006610680445708    -0.010009082030295
     0.006610680445708    -0.003758656520889     0.010009082030295
     0.010009082030292    -0.010009082030292     0.024383411382672
1 35
     0.002733320110522     0.002515552513315     0.000108708344334
    -0.004142132709034     0.001918982622847    -0.009046922234985
    -0.007614458100572    -0.002797002504049    -0.004893649311791
1 36
     0.002733320110526    -0.000108708344334    -0.002515552513315
     0.007614458100572    -0.004893649311787    -0.002797002504049
     0.004142132709033    -0.009046922234985     0.001918982622850
1 37
    -0.000864464634312     0.001393079131811    -0.001622047943505
    -0.001393079131805     0.005510271010604    -0.001393079131805
    -0.001622047943505     0.001393079131811    -0.000864464634313
1 38
     0.000152906784711     0.000384571907400    -0.000139459429896
     0.000309541434307     0.000475511825982    -0.000309541434311
    -0.000139459429895    -0.000384571907403     0.000152906784710
1 39
    -0.000047187453228     0.000249674897978    -0.000163787210554
     0.000325851837695     0.000162518945026    -0.000471630233064
    -0.000343712363398    -0.000432023132008     0.000012594356064
1 40
    -0.000047187453228     0.000163787210554    -0.000249674897978
     0.000343712363398     0.000012594356064    -0.000432023132007
    -0.000325851837694    -0.000471630233064     0.000162518945027
1 41
     0.000152906784708     0.000139459429896    -0.000384571907401
     0.000139459429896     0.000152906784709    -0.000384571907402
    -0.000309541434308    -0.000309541434311     0.000475511825980
1 42
    -0.000864464634291     0.001622047943504    -0.001393079131811
     0.001622047943504    -0.000864464634291     0.001393079131811
     0.001393079131805    -0.001393079131805     0.005510271010625
1 43
     0.000559722187280     0.000615140613080    -0.000079029921156
    -0.000675922525883     0.000434402466876    -0.001615726194956
    -0.001342956144580    -0.000692486478118     0.000053733453238
1 44
    -0.000272668269857     0.001117672627148    -0.001117672627148
     0.000327439485554     0.000058158251174    -0.001524314718356
    -0.000327439485554    -0.001524314718356     0.000058158251175
1 45
     0.000559722187279     0.000079029921156    -0.000615140613081
     0.001342956144580     0.000053733453239    -0.000692486478117
     0.000675922525883    -0.001615726194955     0.000434402466876
1 46
    -0.000864464634312    -0.001393079131808    -0.001622047943505
     0.001393079131814     0.005510271010604     0.001393079131814
    -0.001622047943505    -0.001393079131808    -0.000864464634314
1 47
     0.000559722187279     0.001342956144581     0.000675922525881
     0.000079029921156     0.000053733453239    -0.001615726194955
    -0.000615140613080    -0.000692486478117     0.000434402466876
1 48
    -0.000272668269857     0.000327439485551    -0.000327439485551
     0.001117672627151     0.000058158251175    -0.001524314718356
    -0.001117672627150    -0.001524314718356     0.000058158251175
1 49
     0.000559722187280    -0.000675922525881    -0.001342956144581
     0.000615140613079     0.000434402466876    -0.000692486478118
    -0.000079029921156    -0.001615726194956     0.000053733453238
1 50
    -0.000864464634291     0.001622047943504     0.001393079131809
     0.001622047943504    -0.000864464634291    -0.001393079131808
    -0.001393079131814     0.001393079131814     0.005510271010625
1 51
     0.000152906784709     0.000139459429896    -0.000309541434315
     0.000139459429896     0.000152906784708    -0.000309541434316
    -0.000384571907393    -0.000384571907396     0.000475511825980
1 52
    -0.000047187453228     0.000343712363391    -0.000325851837686
     0.000163787210562     0.000012594356064    -0.000471630233061
    -0.000249674897987    -0.000432023132009     0.000162518945027
1 53
    -0.000047187453228     0.000325851837686    -0.000343712363391
     0.000249674897987     0.000162518945027    -0.000432023132009
    -0.000163787210562    -0.000471630233062     0.000012594356064
1 54
     0.000152906784712     0.000309541434315    -0.000139459429895
     0.000384571907392     0.000475511825982    -0.000384571907398
    -0.000139459429896    -0.000309541434317     0.000152906784710
1 55
    -0.003758656520891    -0.010009082030295    -0.006610680445707
     0.010009082030298     0.024383411382667     0.010009082030298
    -0.006610680445707    -0.010009082030295    -0.003758656520891
1 56
     0.002733320110526     0.007614458100576     0.004142132709035
    -0.000108708344339    -0.004893649311786    -0.009046922235008
    -0.002515552513317    -0.002797002504026     0.001918982622850
1 57
     0.002733320110522    -0.004142132709036    -0.007614458100577
     0.002515552513317     0.001918982622847    -0.002797002504025
     0.000108708344338    -0.009046922235008    -0.004893649311790
1 58
    -0.003758656520889     0.006610680445708     0.010009082030296
     0.006610680445709    -0.003758656520889    -0.010009082030295
    -0.010009082030298     0.010009082030299     0.024383411382672
1 59
     0.000434402466876    -0.000675922525884    -0.001615726194952
     0.000615140613080     0.000559722187280    -0.000079029921157
    -0.000692486478116    -0.001342956144586     0.000053733453238
1 60
     0.000012594356065     0.000163787210562    -0.000471630233064
     0.000343712363393    -0.000047187453228    -0.000325851837688
    -0.000432023132002    -0.000249674897986     0.000162518945027
1 61
     0.000019137125969     0.000233524748304    -0.000233524748303
     0.000233524748304     0.000019137125969    -0.000233524748301
    -0.000233524748304    -0.000233524748300     0.000019137125969
1 62
     0.000012594356063     0.000471630233064    -0.000163787210562
     0.000432023132002     0.000162518945025    -0.000249674897986
    -0.000343712363393    -0.000325851837689    -0.000047187453229
1 63
     0.000434402466878     0.001615726194952     0.000675922525884
     0.000692486478116     0.000053733453240    -0.001342956144586
    -0.000615140613080    -0.000079029921156     0.000559722187280
1 64
    -0.032328762537315    -0.069185350711069    -0.050144694194217
     0.069185350711071     0.140442381654335     0.069185350711071
    -0.050144694194216    -0.069185350711069    -0.032328762537315
1 65
     0.029375499044487     0.023339860344700    -0.023339860344701
    -0.015866542013555    -0.038954433425194    -0.028201752156184
     0.015866542013554    -0.028201752156184    -0.038954433425195
1 66
    -0.032328762537299     0.050144694194217     0.069185350711069
     0.050144694194217    -0.032328762537299    -0.069185350711069
    -0.069185350711071     0.069185350711072     0.140442381654351
1 67
     0.001918982622846    -0.004142132709036    -0.009046922234987
     0.002515552513315     0.002733320110522     0.000108708344335
    -0.002797002504045    -0.007614458100572    -0.004893649311790
1 68
     0.000058158251175     0.000327439485554    -0.001524314718355
     0.001117672627149    -0.000272668269857    -0.001117672627148
    -0.001524314718355    -0.000327439485553     0.000058158251174
1 69
     0.000162518945026     0.000249674897984    -0.000432023132008
     0.000325851837681    -0.000047187453228    -0.000343712363389
    -0.000471630233065    -0.000163787210560     0.000012594356064
1 70
     0.000162518945025     0.000432023132008    -0.000249674897984
     0.000471630233065     0.000012594356063    -0.000163787210560
    -0.000325851837681    -0.000343712363389    -0.000047187453229
1 71
     0.000058158251173     0.001524314718355    -0.000327439485554
     0.001524314718355     0.000058158251172    -0.000327439485553
    -0.001117672627149    -0.001117672627148    -0.000272668269859
1 72
     0.001918982622849     0.009046922234987     0.004142132709036
     0.002797002504045    -0.004893649311787    -0.007614458100571
    -0.002515552513315     0.000108708344335     0.002733320110525
1 73
    -1.540743883179809    -0.749720648253801    -1.599897372924822
     0.749720648253798     1.365628262692157     0.749720648253798
    -1.599897372924823    -0.749720648253801    -1.540743883179808
1 74
    -1.540743883179801     1.599897372924821     0.749720648253800
     1.599897372924820    -1.540743883179800    -0.749720648253800
    -0.749720648253797     0.749720648253797     1.365628262692169
1 75
    -0.038954433425194     0.023339860344697    -0.028201752156185
    -0.015866542013548     0.029375499044487     0.015866542013549
    -0.028201752156185    -0.023339860344692    -0.038954433425195
1 76
    -0.004893649311787     0.007614458100571    -0.002797002504039
    -0.000108708344336     0.002733320110526    -0.002515552513313
    -0.009046922234986     0.004142132709033     0.001918982622850
1 77
     0.000053733453239     0.001342956144586    -0.000692486478115
     0.000079029921158     0.000559722187279    -0.000615140613082
    -0.001615726194953     0.000675922525881     0.000434402466876
1 78
     0.000475511825982     0.000384571907394    -0.000384571907396
     0.000309541434317     0.000152906784711    -0.000139459429896
    -0.000309541434317    -0.000139459429897     0.000152906784710
1 79
     0.000053733453240     0.000692486478115    -0.001342956144586
     0.001615726194953     0.000434402466877     0.000675922525882
    -0.000079029921158    -0.000615140613082     0.000559722187281
1 80
    -0.004893649311788     0.002797002504039    -0.007614458100571
     0.009046922234986     0.001918982622849     0.004142132709033
     0.000108708344336    -0.002515552513313     0.002733320110525
1 81
    -0.038954433425195     0.028201752156185    -0.023339860344697
     0.028201752156185    -0.038954433425195    -0.023339860344692
     0.015866542013548     0.015866542013550     0.029375499044487
1 82
    -1.540743883179806    -1.599897372924818     0.749720648253799
    -1.599897372924817    -1.540743883179809     0.749720648253803
    -0.749720648253800    -0.749720648253803     1.365628262692155
1 83
    -0.038954433425195     0.015866542013558     0.028201752156189
    -0.023339860344705     0.029375499044488    -0.023339860344704
     0.028201752156188     0.015866542013558    -0.038954433425194
1 84
    -0.004893649311790     0.000108708344343     0.009046922235008
    -0.007614458100573     0.002733320110523     0.004142132709035
     0.002797002504026    -0.002515552513316     0.001918982622847
1 85
     0.000053733453241    -0.000079029921163     0.001615726194961
    -0.001342956144580     0.000559722187281     0.000675922525881
     0.000692486478115    -0.000615140613079     0.000434402466878
1 86
     0.000475511825980    -0.000309541434304     0.000309541434304
    -0.000384571907403     0.000152906784708    -0.000139459429896
     0.000384571907401    -0.000139459429897     0.000152906784711
1 87
     0.000053733453239    -0.001615726194961     0.000079029921163
    -0.000692486478115     0.000434402466877    -0.000615140613079
     0.001342956144580     0.000675922525881     0.000559722187279
1 88
    -0.004893649311788    -0.009046922235008    -0.000108708344343
    -0.002797002504026     0.001918982622848    -0.002515552513316
     0.007614458100572     0.004142132709035     0.002733320110525
1 89
    -0.038954433425195    -0.028201752156188    -0.015866542013559
    -0.028201752156189    -0.038954433425196     0.015866542013558
     0.023339860344705    -0.023339860344705     0.029375499044487
1 90
    -1.540743883179798    -0.749720648253800     1.599897372924815
     0.749720648253801     1.365628262692167    -0.749720648253803
     1.599897372924815     0.749720648253804    -1.540743883179799
1 91
     0.029375499044487    -0.023339860344700    -0.023339860344701
     0.015866542013557    -0.038954433425195     0.028201752156185
     0.015866542013552     0.028201752156185    -0.038954433425195
1 92
    -0.006546936755986     0.000278781086363     0.000278781086361
     0.000278781086362    -0.006546936755985     0.000278781086362
     0.000278781086361     0.000278781086363    -0.006546936755985
1 93
    -0.000827563733798     0.000689815485406     0.000689815485405
     0.000133111649331    -0.000436311177937    -0.000114913982598
     0.000133111649334    -0.000114913982597    -0.000436311177937
1 94
     0.000085144588201     0.000144619916137     0.000144619916139
     0.000025583716203    -0.000069584787869    -0.000148752424228
     0.000025583716202    -0.000148752424227    -0.000069584787869
1 95
     0.000085144588201    -0.000144619916139    -0.000144619916137
    -0.000025583716202    -0.000069584787869    -0.000148752424227
    -0.000025583716203    -0.000148752424227    -0.000069584787869
1 96
    -0.000827563733799    -0.000689815485405    -0.000689815485406
    -0.000133111649334    -0.000436311177938    -0.000114913982597
    -0.000133111649331    -0.000114913982598    -0.000436311177938
1 97
    -0.006546936755988    -0.000278781086361    -0.000278781086362
    -0.000278781086361    -0.006546936755987     0.000278781086362
    -0.000278781086362     0.000278781086362    -0.006546936755987
1 98
     0.029375499044487     0.023339860344702     0.023339860344701
    -0.015866542013552    -0.038954433425195     0.028201752156185
    -0.015866542013557     0.028201752156185    -0.038954433425195
1 99
    -0.080942341458706    -0.000000000000003     0.000000000000002
    -0.000000000000005    -0.045209226496502     0.000000000000003
     0.000000000000004     0.000000000000003    -0.045209226496501
1 100
     0.002733320110522    -0.007614458100575     0.004142132709036
     0.000108708344339    -0.004893649311790     0.009046922235005
    -0.002515552513315     0.002797002504027     0.001918982622847
1 101
    -0.000436311177937     0.000133111649328    -0.000114913982604
     0.000689815485406    -0.000827563733799     0.000689815485406
    -0.000114913982604     0.000133111649328    -0.000436311177937
1 102
    -0.000071161713498     0.000257086501741    -0.000003321360427
     0.000257086501746    -0.000071161713498    -0.000003321360427
    -0.000033068758052    -0.000033068758051    -0.000061274272314
1 103
     0.000021203823688     0.000099304253225    -0.000099304253225
     0.000099517423184    -0.000017558890844    -0.000081838161273
    -0.000099517423184    -0.000081838161273    -0.000017558890844
1 104
    -0.000071161713500     0.000003321360427    -0.000257086501741
     0.000033068758052    -0.000061274272315    -0.000033068758051
    -0.000257086501746    -0.000003321360427    -0.000071161713499
1 105
    -0.000436311177938     0.000114913982604    -0.000133111649328
     0.000114913982604    -0.000436311177938     0.000133111649328
    -0.000689815485406     0.000689815485406    -0.000827563733799
1 106
     0.002733320110523    -0.004142132709036     0.007614458100575
     0.002515552513315     0.001918982622848     0.002797002504027
    -0.000108708344339     0.009046922235005    -0.004893649311790
1 107
    -0.002499838996827    -0.003728050679917     0.005867083419935
    -0.003728050679924    -0.007623842688340    -0.000065307675857
    -0.005867083419932     0.000065307675856    -0.005256714364240
1 108
    -0.002499838996828    -0.005867083419934     0.003728050679916
     0.005867083419932    -0.005256714364242     0.000065307675856
     0.003728050679923    -0.000065307675857    -0.007623842688341
1 109
     0.000559722187282    -0.001342956144581     0.000675922525882
    -0.000079029921161     0.000053733453240     0.001615726194954
    -0.000615140613078     0.000692486478114     0.000434402466878
1 110
    -0.000069584787869     0.000025583716206    -0.000148752424226
     0.000144619916144     0.000085144588201     0.000144619916144
    -0.000148752424226     0.000025583716206    -0.000069584787869
1 111
    -0.000017558890844     0.000099517423186    -0.000081838161273
     0.000099304253219     0.000021203823688    -0.000099304253222
    -0.000081838161274    -0.000099517423190    -0.000017558890844
1 112
    -0.000017558890845     0.000081838161273    -0.000099517423186
     0.000081838161274    -0.000017558890845    -0.000099517423190
    -0.000099304253219    -0.000099304253222     0.000021203823688
1 113
    -0.000069584787870     0.000148752424226    -0.000025583716206
     0.000148752424226    -0.000069584787870     0.000025583716206
    -0.000144619916144     0.000144619916143     0.000085144588200
1 114
     0.000559722187282    -0.000675922525881     0.001342956144581
     0.000615140613078     0.000434402466877     0.000692486478114
     0.000079029921162     0.001615726194955     0.000053733453240
1 115
     0.000260619009139    -0.000267724766958     0.001063440082580
    -0.000267724766969    -0.000782647907024    -0.000389716093816
    -0.001063440082583     0.000389716093816    -0.000503132728073
1 116
    -0.000385714504621    -0.001013591619457     0.001013591619457
     0.000383848836649    -0.001456192197073    -0.000664846860734
    -0.000383848836649    -0.000664846860734    -0.001456192197073
1 117
     0.000260619009139    -0.001063440082580     0.000267724766958
     0.001063440082583    -0.000503132728073     0.000389716093816
     0.000267724766969    -0.000389716093816    -0.000782647907024
1 118
     0.000152906784709    -0.000384571907403    -0.000139459429895
    -0.000309541434311     0.000475511825981     0.000309541434307
    -0.000139459429896     0.000384571907400     0.000152906784710
1 119
    -0.000069584787869    -0.000025583716203    -0.000148752424227
    -0.000144619916138     0.000085144588202    -0.000144619916138
    -0.000148752424227    -0.000025583716203    -0.000069584787869
1 120
    -0.000061274272315     0.000033068758051    -0.000033068758051
     0.000003321360425    -0.000071161713500    -0.000257086501747
    -0.000003321360425    -0.000257086501747    -0.000071161713500
1 121
    -0.000069584787870     0.000148752424227     0.000025583716203
     0.000148752424227    -0.000069584787871    -0.000025583716203
     0.000144619916138    -0.000144619916138     0.000085144588200
1 122
     0.000152906784708     0.000139459429896     0.000384571907402
     0.000139459429895     0.000152906784708     0.000384571907401
     0.000309541434311     0.000309541434308     0.000475511825978
1 123
     0.000029831913425     0.000099718571843     0.000200113145189
     0.000099718571840    -0.000139309236473    -0.000034735614238
    -0.000200113145191     0.000034735614237     0.000288578442181
1 124
    -0.000049871176275     0.000033045826353     0.000115959841509
     0.000162598578402    -0.000272550038684    -0.000358004861840
    -0.000207945972826    -0.000189348157380    -0.000257117940569
1 125
    -0.000049871176275    -0.000115959841509    -0.000033045826353
     0.000207945972826    -0.000257117940569    -0.000189348157380
    -0.000162598578402    -0.000358004861840    -0.000272550038684
1 126
     0.000029831913423    -0.000200113145189    -0.000099718571844
     0.000200113145191     0.000288578442179     0.000034735614238
    -0.000099718571841    -0.000034735614238    -0.000139309236475
1 127
     0.000434402466876    -0.000692486478117    -0.000615140613080
    -0.001615726194955     0.000053733453239     0.000079029921156
     0.000675922525881     0.001342956144581     0.000559722187279
1 128
    -0.000436311177938    -0.000133111649331    -0.000114913982602
    -0.000689815485404    -0.000827563733799    -0.000689815485404
    -0.000114913982602    -0.000133111649331    -0.000436311177938
1 129
    -0.000436311177938     0.000114913982602     0.000133111649331
     0.000114913982602    -0.000436311177938    -0.000133111649331
     0.000689815485404    -0.000689815485405    -0.000827563733799
1 130
     0.000434402466877     0.000615140613079     0.000692486478118
    -0.000675922525881     0.000559722187282     0.001342956144581
     0.001615726194956     0.000079029921156     0.000053733453240
1 131
    -0.000139309236473     0.000099718571840    -0.000034735614240
     0.000099718571843     0.000029831913426     0.000200113145188
     0.000034735614241    -0.000200113145186     0.000288578442181
1 132
    -0.000087072746128     0.000119281569820    -0.000093363309770
     0.000119281569822    -0.000087072746128    -0.000093363309767
    -0.000133562737629    -0.000133562737630    -0.000011740546332
1 133
    -0.000068496364833     0.000105523848037    -0.000105523848037
     0.000139099693228    -0.000100038806842    -0.000172302710267
    -0.000139099693228    -0.000172302710267    -0.000100038806842
1 134
    -0.000087072746127     0.000093363309770    -0.000119281569820
     0.000133562737629    -0.000011740546332    -0.000133562737630
    -0.000119281569821    -0.000093363309767    -0.000087072746128
1 135
    -0.000139309236474     0.000034735614241    -0.000099718571841
    -0.000034735614242     0.000288578442180    -0.000200113145186
    -0.000099718571844     0.000200113145188     0.000029831913426
1 136
     0.001918982622849    -0.002797002504026    -0.002515552513317
    -0.009046922235008    -0.004893649311789    -0.000108708344339
     0.004142132709035     0.007614458100576     0.002733320110524
1 137
    -0.006546936755987    -0.000278781086363     0.000278781086363
    -0.000278781086363    -0.006546936755987    -0.000278781086363
     0.000278781086363    -0.000278781086363    -0.006546936755987
1 138
     0.001918982622848     0.002515552513317     0.002797002504025
    -0.004142132709035     0.002733320110523     0.007614458100577
     0.009046922235008    -0.000108708344338    -0.004893649311789
1 139
    -0.000782647907024    -0.000267724766970    -0.000389716093814
    -0.000267724766958     0.000260619009139     0.001063440082583
     0.000389716093814    -0.001063440082581    -0.000503132728073
1 140
    -0.000272550038683     0.000162598578400    -0.000358004861842
     0.000033045826354    -0.000049871176275     0.000115959841507
    -0.000189348157382    -0.000207945972828    -0.000257117940568
1 141
    -0.000100038806842     0.000139099693227    -0.000172302710262
     0.000105523848037    -0.000068496364833    -0.000105523848034
    -0.000172302710260    -0.000139099693223    -0.000100038806841
1 142
    -0.000100038806842     0.000172302710263    -0.000139099693227
     0.000172302710260    -0.000100038806841    -0.000139099693223
    -0.000105523848038    -0.000105523848034    -0.000068496364833
1 143
    -0.000272550038684     0.000358004861842    -0.000162598578400
     0.000189348157382    -0.000257117940569    -0.000207945972828
    -0.000033045826354     0.000115959841507    -0.000049871176276
1 144
    -0.000782647907023     0.000389716093814     0.000267724766969
    -0.000389716093814    -0.000503132728073    -0.001063440082581
     0.000267724766958     0.001063440082584     0.000260619009139
1 145
    -0.038954433425195    -0.028201752156184     0.015866542013554
    -0.028201752156184    -0.038954433425195    -0.015866542013555
    -0.023339860344701     0.023339860344701     0.029375499044487
1 146
    -0.038954433425195    -0.015866542013554     0.028201752156185